[Molden Format]
made by pyscf v[2.12.1]
[Atoms] (AU)
H   1   1     0.00000000000000     0.00000000000000     0.00000000000000
H   2   1     1.88972612456506     0.00000000000000     0.00000000000000
H   3   1     3.77945224913012     0.00000000000000     0.00000000000000
H   4   1     5.66917837369519     0.00000000000000     0.00000000000000
H   5   1     7.55890449826025     0.00000000000000     0.00000000000000
H   6   1     9.44863062282531     0.00000000000000     0.00000000000000
[GTO]
1 0
 s    3 1.00
            3.42525091    0.15432897070298
            0.62391373    0.53532814243847
             0.1688554    0.44463454202535

2 0
 s    3 1.00
            3.42525091    0.15432897070298
            0.62391373    0.53532814243847
             0.1688554    0.44463454202535

3 0
 s    3 1.00
            3.42525091    0.15432897070298
            0.62391373    0.53532814243847
             0.1688554    0.44463454202535

4 0
 s    3 1.00
            3.42525091    0.15432897070298
            0.62391373    0.53532814243847
             0.1688554    0.44463454202535

5 0
 s    3 1.00
            3.42525091    0.15432897070298
            0.62391373    0.53532814243847
             0.1688554    0.44463454202535

6 0
 s    3 1.00
            3.42525091    0.15432897070298
            0.62391373    0.53532814243847
             0.1688554    0.44463454202535

[5d]
[7f]
[9g]

[MO]
 Sym= A
 Ene=               0
 Spin= Alpha
 Occup=    1.00000
   1       1.1106966112449
   2     -0.35998826924008
   3      0.24044937997388
   4    -0.022840463497223
   5    -0.068589531097285
   6     0.016604998932824
 Sym= A
 Ene=               1
 Spin= Alpha
 Occup=    1.00000
   1     -0.32610767243791
   2       1.2072103843379
   3     -0.25086786161679
   4     -0.23226236322904
   5     0.047922873918848
   6     0.092279371131987
 Sym= A
 Ene=               2
 Spin= Alpha
 Occup=    1.00000
   1    -0.086178028840019
   2      -0.3223902466171
   3       1.2366015533399
   4     -0.43801556064527
   5      0.38116172834105
   6     -0.11336985574621
 Sym= A
 Ene=               3
 Spin= Alpha
 Occup=    0.00000
   1     -0.11336985575157
   2      0.38116172833617
   3     -0.43801556062254
   4       1.2366015533309
   5     -0.32239024660715
   6    -0.086178028843527
 Sym= A
 Ene=               4
 Spin= Alpha
 Occup=    0.00000
   1     0.092279371130754
   2     0.047922873922523
   3     -0.23226236322718
   4     -0.25086786163244
   5       1.2072103843586
   6      -0.3261076724998
 Sym= A
 Ene=               5
 Spin= Alpha
 Occup=    0.00000
   1     0.016604998941649
   2    -0.068589531094769
   3    -0.022840463513946
   4      0.24044937996216
   5     -0.35998826917437
   6       1.1106966112271
