[Molden Format]
made by pyscf v[2.12.1]
[Atoms] (AU)
H   1   1     0.00000000000000     0.00000000000000     0.00000000000000
H   2   1     1.88972612456506     0.00000000000000     0.00000000000000
H   3   1     3.77945224913012     0.00000000000000     0.00000000000000
H   4   1     5.66917837369519     1.88972612456506     0.00000000000000
H   5   1     7.55890449826025     1.88972612456506     0.00000000000000
H   6   1     9.44863062282531     1.88972612456506     0.00000000000000
[GTO]
1 0
 s    3 1.00
            3.42525091    0.15432897070298
            0.62391373    0.53532814243847
             0.1688554    0.44463454202535

2 0
 s    3 1.00
            3.42525091    0.15432897070298
            0.62391373    0.53532814243847
             0.1688554    0.44463454202535

3 0
 s    3 1.00
            3.42525091    0.15432897070298
            0.62391373    0.53532814243847
             0.1688554    0.44463454202535

4 0
 s    3 1.00
            3.42525091    0.15432897070298
            0.62391373    0.53532814243847
             0.1688554    0.44463454202535

5 0
 s    3 1.00
            3.42525091    0.15432897070298
            0.62391373    0.53532814243847
             0.1688554    0.44463454202535

6 0
 s    3 1.00
            3.42525091    0.15432897070298
            0.62391373    0.53532814243847
             0.1688554    0.44463454202535

[5d]
[7f]
[9g]

[MO]
 Sym= A
 Ene=               0
 Spin= Alpha
 Occup=    1.00000
   1       1.1210943477793
   2     -0.32641063122671
   3     0.056589302804049
   4    -0.0029677905046936
   5    -0.00030294625679464
   6    9.2678470820888e-05
 Sym= A
 Ene=               1
 Spin= Alpha
 Occup=    1.00000
   1     -0.32641063122671
   2       1.2567360904459
   3     -0.33365439783407
   4     0.022263385002793
   5    0.00077459502413103
   6    -0.00030294625679491
 Sym= A
 Ene=               2
 Spin= Alpha
 Occup=    1.00000
   1     0.056589302804048
   2     -0.33365439783407
   3       1.1626345057081
   4     -0.17596846664899
   5     0.022263385002793
   6    -0.002967790504693
 Sym= A
 Ene=               3
 Spin= Alpha
 Occup=    0.00000
   1    -0.0029677905046933
   2     0.022263385002793
   3     -0.17596846664899
   4       1.1626345057081
   5     -0.33365439783407
   6     0.056589302804048
 Sym= A
 Ene=               4
 Spin= Alpha
 Occup=    0.00000
   1    -0.00030294625679472
   2    0.00077459502413096
   3     0.022263385002793
   4     -0.33365439783407
   5       1.2567360904459
   6     -0.32641063122671
 Sym= A
 Ene=               5
 Spin= Alpha
 Occup=    0.00000
   1    9.2678470820694e-05
   2    -0.00030294625679492
   3    -0.0029677905046932
   4     0.056589302804049
   5     -0.32641063122671
   6       1.1210943477793
