[Molden Format]
made by pyscf v[2.12.1]
[Atoms] (AU)
H   1   1     0.00000000000000     0.00000000000000     0.00000000000000
H   2   1     1.88972612456506     0.00000000000000     0.00000000000000
H   3   1     3.77945224913012     0.00000000000000     0.00000000000000
H   4   1     5.66917837369519     1.88972612456506     0.00000000000000
H   5   1     7.55890449826025     1.88972612456506     0.00000000000000
H   6   1     9.44863062282531     1.88972612456506     0.00000000000000
[GTO]
1 0
 s    3 1.00
            3.42525091    0.15432897070298
            0.62391373    0.53532814243847
             0.1688554    0.44463454202535

2 0
 s    3 1.00
            3.42525091    0.15432897070298
            0.62391373    0.53532814243847
             0.1688554    0.44463454202535

3 0
 s    3 1.00
            3.42525091    0.15432897070298
            0.62391373    0.53532814243847
             0.1688554    0.44463454202535

4 0
 s    3 1.00
            3.42525091    0.15432897070298
            0.62391373    0.53532814243847
             0.1688554    0.44463454202535

5 0
 s    3 1.00
            3.42525091    0.15432897070298
            0.62391373    0.53532814243847
             0.1688554    0.44463454202535

6 0
 s    3 1.00
            3.42525091    0.15432897070298
            0.62391373    0.53532814243847
             0.1688554    0.44463454202535

[5d]
[7f]
[9g]

[MO]
 Sym= A
 Ene=               0
 Spin= Alpha
 Occup=    1.00000
   1      0.20407779784418
   2      0.33358925529275
   3      0.32430187962634
   4      0.32430187962634
   5      0.33358925529275
   6      0.20407779784418
 Sym= A
 Ene=               1
 Spin= Alpha
 Occup=    1.00000
   1      0.32616779175964
   2       0.4110685424128
   3      0.17532275808563
   4     -0.17532275808563
   5     -0.41106854241279
   6     -0.32616779175964
 Sym= A
 Ene=               2
 Spin= Alpha
 Occup=    1.00000
   1     -0.48231248524376
   2     -0.18267012364351
   3      0.49190020946495
   4      0.49190020946495
   5     -0.18267012364351
   6     -0.48231248524376
 Sym= A
 Ene=               3
 Spin= Alpha
 Occup=    0.00000
   1     -0.55925776446725
   2      0.18094441183658
   3      0.57745040195212
   4     -0.57745040195212
   5     -0.18094441183658
   6      0.55925776446726
 Sym= A
 Ene=               4
 Spin= Alpha
 Occup=    0.00000
   1     -0.63958236925942
   2      0.86479446055639
   3     -0.43535873236003
   4     -0.43535873236003
   5       0.8647944605564
   6     -0.63958236925943
 Sym= A
 Ene=               5
 Spin= Alpha
 Occup=    0.00000
   1     -0.51392054889625
   2      0.83875697160903
   3     -0.77256338273028
   4      0.77256338273028
   5     -0.83875697160902
   6      0.51392054889624
